Spinel                                  
   1.00000000000000     
     4.000000    0.000000    0.000000
     0.000000    4.000000    0.000000
     0.000000    0.000000    4.000000
   Al
     2
Direct
  0.000000  0.000000  0.000000
  0.500000  0.500000  0.500000
 
   36   36   36
 -1.9182     -1.2174     0.76118      3.6635      6.9574      10.024      12.289      13.373      13.208      12.042    
  10.322      8.4478      6.6908      5.2086      4.0515      3.2056      2.6345      2.3054      2.1978      2.3054    
  2.6345      3.2056      4.0515      5.2086      6.6908      8.4478      10.322      12.042      13.208      13.373    
  12.289      10.024      6.9574      3.6635     0.76118     -1.2174     -1.2174     -.53587      1.3862      4.1987    
  7.3772      10.314      12.452      13.428      13.186      11.980      10.250      8.3811      6.6372      5.1695    
  4.0248      3.1881      2.6231      2.2972      2.1907      2.2972      2.6231      3.1881      4.0248      5.1695    
  6.6372      8.3811      10.250      11.980      13.186      13.428      12.452      10.314      7.3772      4.1987    
  1.3862     -.53587     0.76118      1.3862      3.1427      5.6931      8.5361      11.101      12.875      13.546    
  13.094      11.783      10.031      8.1819      6.4787      5.0545      3.9468      3.1371      2.5897      2.2736    
  2.1702      2.2736      2.5897      3.1371      3.9468      5.0545      6.4787      8.1819      10.031      11.783    
  13.094      13.546      12.875      11.101      8.5361      5.6931      3.1427      1.3862      3.6635      4.1987    
  5.6931      7.8316      10.154      12.149      13.381      13.610      12.868      11.427      9.6585      7.8545    
  6.2227      4.8708      3.8228      3.0567      2.5376      2.2372      2.1387      2.2372      2.5376      3.0567    
  3.8228      4.8708      6.2227      7.8545      9.6585      11.427      12.868      13.610      13.381      12.149    
  10.154      7.8316      5.6931      4.1987      6.9574      7.3772      8.5361      10.154      11.829      13.135    
  13.733      13.471      12.433      10.887      9.1334      7.4099      5.8827      4.6300      3.6617      2.9530    
  2.4714      2.1918      2.1000      2.1918      2.4714      2.9530      3.6617      4.6300      5.8827      7.4099    
  9.1334      10.887      12.433      13.471      13.733      13.135      11.829      10.154      8.5361      7.3772    
  10.024      10.314      11.101      12.149      13.135      13.734      13.713      13.009      11.745      10.158    
  8.4695      6.8690      5.4783      4.3474      3.4744      2.8337      2.3968      2.1423      2.0586      2.1423    
  2.3968      2.8337      3.4744      4.3474      5.4783      6.8690      8.4695      10.158      11.745      13.009    
  13.713      13.734      13.135      12.149      11.101      10.314      12.289      12.452      12.875      13.381    
  13.733      13.713      13.192      12.179      10.812      9.2619      7.6988      6.2621      5.0337      4.0403    
  3.2729      2.7074      2.3201      2.0939      2.0194      2.0939      2.3201      2.7074      3.2729      4.0403    
  5.0337      6.2621      7.6988      9.2619      10.812      12.179      13.192      13.713      13.733      13.381    
  12.875      12.452      13.373      13.428      13.546      13.610      13.471      13.009      12.179      11.037    
  9.6844      8.2522      6.8677      5.6252      4.5744      3.7263      3.0689      2.5822      2.2476      2.0517    
  1.9872      2.0517      2.2476      2.5822      3.0689      3.7263      4.5744      5.6252      6.8677      8.2522    
  9.6844      11.037      12.179      13.009      13.471      13.610      13.546      13.428      13.208      13.186    
  13.094      12.868      12.433      11.745      10.812      9.6844      8.4465      7.1983      6.0277      4.9939    
  4.1241      3.4208      2.8730      2.4656      2.1847      2.0202      1.9661      2.0202      2.1847      2.4656    
  2.8730      3.4208      4.1241      4.9939      6.0277      7.1983      8.4465      9.6844      10.812      11.745    
  12.433      12.868      13.094      13.186      12.042      11.980      11.783      11.427      10.887      10.158    
  9.2619      8.2522      7.1983      6.1706      5.2255      4.3978      3.7016      3.1362      2.6936      2.3634    
  2.1356      2.0025      1.9587      2.0025      2.1356      2.3634      2.6936      3.1362      3.7016      4.3978    
  5.2255      6.1706      7.1983      8.2522      9.2619      10.158      10.887      11.427      11.783      11.980    
  10.322      10.250      10.031      9.6585      9.1334      8.4695      7.6988      6.8677      6.0277      5.2255    
  4.4956      3.8580      3.3201      2.8814      2.5368      2.2797      2.1029      1.9999      1.9661      1.9999    
  2.1029      2.2797      2.5368      2.8814      3.3201      3.8580      4.4956      5.2255      6.0277      6.8677    
  7.6988      8.4695      9.1334      9.6585      10.031      10.250      8.4478      8.3811      8.1819      7.8545    
  7.4099      6.8690      6.2621      5.6252      4.9939      4.3978      3.8580      3.3862      2.9874      2.6617    
  2.4062      2.2165      2.0868      2.0117      1.9872      2.0117      2.0868      2.2165      2.4062      2.6617    
  2.9874      3.3862      3.8580      4.3978      4.9939      5.6252      6.2621      6.8690      7.4099      7.8545    
  8.1819      8.3811      6.6908      6.6372      6.4787      6.2227      5.8827      5.4783      5.0337      4.5744    
  4.1241      3.7016      3.3201      2.9874      2.7071      2.4796      2.3029      2.1732      2.0858      2.0357    
  2.0194      2.0357      2.0858      2.1732      2.3029      2.4796      2.7071      2.9874      3.3201      3.7016    
  4.1241      4.5744      5.0337      5.4783      5.8827      6.2227      6.4787      6.6372      5.2086      5.1695    
  5.0545      4.8708      4.6300      4.3474      4.0403      3.7263      3.4208      3.1362      2.8814      2.6617    
  2.4796      2.3350      2.2257      2.1477      2.0965      2.0678      2.0586      2.0678      2.0965      2.1477    
  2.2257      2.3350      2.4796      2.6617      2.8814      3.1362      3.4208      3.7263      4.0403      4.3474    
  4.6300      4.8708      5.0545      5.1695      4.0515      4.0248      3.9468      3.8228      3.6617      3.4744    
  3.2729      3.0689      2.8730      2.6936      2.5368      2.4062      2.3029      2.2257      2.1714      2.1358    
  2.1144      2.1034      2.1000      2.1034      2.1144      2.1358      2.1714      2.2257      2.3029      2.4062    
  2.5368      2.6936      2.8730      3.0689      3.2729      3.4744      3.6617      3.8228      3.9468      4.0248    
  3.2056      3.1881      3.1371      3.0567      2.9530      2.8337      2.7074      2.5822      2.4656      2.3634    
  2.2797      2.2165      2.1732      2.1477      2.1358      2.1330      2.1349      2.1376      2.1387      2.1376    
  2.1349      2.1330      2.1358      2.1477      2.1732      2.2165      2.2797      2.3634      2.4656      2.5822    
  2.7074      2.8337      2.9530      3.0567      3.1371      3.1881      2.6345      2.6231      2.5897      2.5376    
  2.4714      2.3968      2.3201      2.2476      2.1847      2.1356      2.1029      2.0868      2.0858      2.0965    
  2.1144      2.1349      2.1532      2.1657      2.1702      2.1657      2.1532      2.1349      2.1144      2.0965    
  2.0858      2.0868      2.1029      2.1356      2.1847      2.2476      2.3201      2.3968      2.4714      2.5376    
  2.5897      2.6231      2.3054      2.2972      2.2736      2.2372      2.1918      2.1423      2.0939      2.0517    
  2.0202      2.0025      1.9999      2.0117      2.0357      2.0678      2.1034      2.1376      2.1657      2.1842    
  2.1907      2.1842      2.1657      2.1376      2.1034      2.0678      2.0357      2.0117      1.9999      2.0025    
  2.0202      2.0517      2.0939      2.1423      2.1918      2.2372      2.2736      2.2972      2.1978      2.1907    
  2.1702      2.1387      2.1000      2.0586      2.0194      1.9872      1.9661      1.9587      1.9661      1.9872    
  2.0194      2.0586      2.1000      2.1387      2.1702      2.1907      2.1978      2.1907      2.1702      2.1387    
  2.1000      2.0586      2.0194      1.9872      1.9661      1.9587      1.9661      1.9872      2.0194      2.0586    
  2.1000      2.1387      2.1702      2.1907      2.3054      2.2972      2.2736      2.2372      2.1918      2.1423    
  2.0939      2.0517      2.0202      2.0025      1.9999      2.0117      2.0357      2.0678      2.1034      2.1376    
  2.1657      2.1842      2.1907      2.1842      2.1657      2.1376      2.1034      2.0678      2.0357      2.0117    
  1.9999      2.0025      2.0202      2.0517      2.0939      2.1423      2.1918      2.2372      2.2736      2.2972    
  2.6345      2.6231      2.5897      2.5376      2.4714      2.3968      2.3201      2.2476      2.1847      2.1356    
  2.1029      2.0868      2.0858      2.0965      2.1144      2.1349      2.1532      2.1657      2.1702      2.1657    
  2.1532      2.1349      2.1144      2.0965      2.0858      2.0868      2.1029      2.1356      2.1847      2.2476    
  2.3201      2.3968      2.4714      2.5376      2.5897      2.6231      3.2056      3.1881      3.1371      3.0567    
  2.9530      2.8337      2.7074      2.5822      2.4656      2.3634      2.2797      2.2165      2.1732      2.1477    
  2.1358      2.1330      2.1349      2.1376      2.1387      2.1376      2.1349      2.1330      2.1358      2.1477    
  2.1732      2.2165      2.2797      2.3634      2.4656      2.5822      2.7074      2.8337      2.9530      3.0567    
  3.1371      3.1881      4.0515      4.0248      3.9468      3.8228      3.6617      3.4744      3.2729      3.0689    
  2.8730      2.6936      2.5368      2.4062      2.3029      2.2257      2.1714      2.1358      2.1144      2.1034    
  2.1000      2.1034      2.1144      2.1358      2.1714      2.2257      2.3029      2.4062      2.5368      2.6936    
  2.8730      3.0689      3.2729      3.4744      3.6617      3.8228      3.9468      4.0248      5.2086      5.1695    
  5.0545      4.8708      4.6300      4.3474      4.0403      3.7263      3.4208      3.1362      2.8814      2.6617    
  2.4796      2.3350      2.2257      2.1477      2.0965      2.0678      2.0586      2.0678      2.0965      2.1477    
  2.2257      2.3350      2.4796      2.6617      2.8814      3.1362      3.4208      3.7263      4.0403      4.3474    
  4.6300      4.8708      5.0545      5.1695      6.6908      6.6372      6.4787      6.2227      5.8827      5.4783    
  5.0337      4.5744      4.1241      3.7016      3.3201      2.9874      2.7071      2.4796      2.3029      2.1732    
  2.0858      2.0357      2.0194      2.0357      2.0858      2.1732      2.3029      2.4796      2.7071      2.9874    
  3.3201      3.7016      4.1241      4.5744      5.0337      5.4783      5.8827      6.2227      6.4787      6.6372    
  8.4478      8.3811      8.1819      7.8545      7.4099      6.8690      6.2621      5.6252      4.9939      4.3978    
  3.8580      3.3862      2.9874      2.6617      2.4062      2.2165      2.0868      2.0117      1.9872      2.0117    
  2.0868      2.2165      2.4062      2.6617      2.9874      3.3862      3.8580      4.3978      4.9939      5.6252    
  6.2621      6.8690      7.4099      7.8545      8.1819      8.3811      10.322      10.250      10.031      9.6585    
  9.1334      8.4695      7.6988      6.8677      6.0277      5.2255      4.4956      3.8580      3.3201      2.8814    
  2.5368      2.2797      2.1029      1.9999      1.9661      1.9999      2.1029      2.2797      2.5368      2.8814    
  3.3201      3.8580      4.4956      5.2255      6.0277      6.8677      7.6988      8.4695      9.1334      9.6585    
  10.031      10.250      12.042      11.980      11.783      11.427      10.887      10.158      9.2619      8.2522    
  7.1983      6.1706      5.2255      4.3978      3.7016      3.1362      2.6936      2.3634      2.1356      2.0025    
  1.9587      2.0025      2.1356      2.3634      2.6936      3.1362      3.7016      4.3978      5.2255      6.1706    
  7.1983      8.2522      9.2619      10.158      10.887      11.427      11.783      11.980      13.208      13.186    
  13.094      12.868      12.433      11.745      10.812      9.6844      8.4465      7.1983      6.0277      4.9939    
  4.1241      3.4208      2.8730      2.4656      2.1847      2.0202      1.9661      2.0202      2.1847      2.4656    
  2.8730      3.4208      4.1241      4.9939      6.0277      7.1983      8.4465      9.6844      10.812      11.745    
  12.433      12.868      13.094      13.186      13.373      13.428      13.546      13.610      13.471      13.009    
  12.179      11.037      9.6844      8.2522      6.8677      5.6252      4.5744      3.7263      3.0689      2.5822    
  2.2476      2.0517      1.9872      2.0517      2.2476      2.5822      3.0689      3.7263      4.5744      5.6252    
  6.8677      8.2522      9.6844      11.037      12.179      13.009      13.471      13.610      13.546      13.428    
  12.289      12.452      12.875      13.381      13.733      13.713      13.192      12.179      10.812      9.2619    
  7.6988      6.2621      5.0337      4.0403      3.2729      2.7074      2.3201      2.0939      2.0194      2.0939    
  2.3201      2.7074      3.2729      4.0403      5.0337      6.2621      7.6988      9.2619      10.812      12.179    
  13.192      13.713      13.733      13.381      12.875      12.452      10.024      10.314      11.101      12.149    
  13.135      13.734      13.713      13.009      11.745      10.158      8.4695      6.8690      5.4783      4.3474    
  3.4744      2.8337      2.3968      2.1423      2.0586      2.1423      2.3968      2.8337      3.4744      4.3474    
  5.4783      6.8690      8.4695      10.158      11.745      13.009      13.713      13.734      13.135      12.149    
  11.101      10.314      6.9574      7.3772      8.5361      10.154      11.829      13.135      13.733      13.471    
  12.433      10.887      9.1334      7.4099      5.8827      4.6300      3.6617      2.9530      2.4714      2.1918    
  2.1000      2.1918      2.4714      2.9530      3.6617      4.6300      5.8827      7.4099      9.1334      10.887    
  12.433      13.471      13.733      13.135      11.829      10.154      8.5361      7.3772      3.6635      4.1987    
  5.6931      7.8316      10.154      12.149      13.381      13.610      12.868      11.427      9.6585      7.8545    
  6.2227      4.8708      3.8228      3.0567      2.5376      2.2372      2.1387      2.2372      2.5376      3.0567    
  3.8228      4.8708      6.2227      7.8545      9.6585      11.427      12.868      13.610      13.381      12.149    
  10.154      7.8316      5.6931      4.1987     0.76118      1.3862      3.1427      5.6931      8.5361      11.101    
  12.875      13.546      13.094      11.783      10.031      8.1819      6.4787      5.0545      3.9468      3.1371    
  2.5897      2.2736      2.1702      2.2736      2.5897      3.1371      3.9468      5.0545      6.4787      8.1819    
  10.031      11.783      13.094      13.546      12.875      11.101      8.5361      5.6931      3.1427      1.3862    
 -1.2174     -.53587      1.3862      4.1987      7.3772      10.314      12.452      13.428      13.186      11.980    
  10.250      8.3811      6.6372      5.1695      4.0248      3.1881      2.6231      2.2972      2.1907      2.2972    
  2.6231      3.1881      4.0248      5.1695      6.6372      8.3811      10.250      11.980      13.186      13.428    
  12.452      10.314      7.3772      4.1987      1.3862     -.53587     -1.2174     -.53587      1.3862      4.1987    
  7.3772      10.314      12.452      13.428      13.186      11.980      10.250      8.3811      6.6372      5.1695    
  4.0248      3.1881      2.6231      2.2972      2.1907      2.2972      2.6231      3.1881      4.0248      5.1695    
  6.6372      8.3811      10.250      11.980      13.186      13.428      12.452      10.314      7.3772      4.1987    
  1.3862     -.53587     -.53587     0.12657      1.9927      4.7164      7.7810      10.591      12.604      13.475    
  13.160      11.917      10.178      8.3153      6.5847      5.1314      3.9991      3.1715      2.6123      2.2897    
  2.1842      2.2897      2.6123      3.1715      3.9991      5.1314      6.5847      8.3153      10.178      11.917    
  13.160      13.475      12.604      10.591      7.7810      4.7164      1.9927     0.12657      1.3862      1.9927    
  3.6949      6.1597      8.8941      11.339      12.998      13.575      13.059      11.718      9.9599      8.1189    
  6.4294      5.0195      3.9237      3.1228      2.5811      2.2681      2.1657      2.2681      2.5811      3.1228    
  3.9237      5.0195      6.4294      8.1189      9.9599      11.718      13.059      13.575      12.998      11.339    
  8.8941      6.1597      3.6949      1.9927      4.1987      4.7164      6.1597      8.2186      10.441      12.329    
  13.461      13.611      12.819      11.358      9.5900      7.7962      6.1787      4.8408      3.8041      3.0462    
  2.5325      2.2350      2.1376      2.2350      2.5325      3.0462      3.8041      4.8408      6.1787      7.7962    
  9.5900      11.358      12.819      13.611      13.461      12.329      10.441      8.2186      6.1597      4.7164    
  7.3772      7.7810      8.8941      10.441      12.030      13.247      13.764      13.443      12.372      10.818    
  9.0694      7.3585      5.8460      4.6066      3.6489      2.9477      2.4710      2.1942      2.1034      2.1942    
  2.4710      2.9477      3.6489      4.6066      5.8460      7.3585      9.0694      10.818      12.372      13.443    
  13.764      13.247      12.030      10.441      8.8941      7.7810      10.314      10.591      11.339      12.329    
  13.247      13.777      13.698      12.957      11.678      10.091      8.4129      6.8267      5.4506      4.3321    
  3.4687      2.8349      2.4025      2.1506      2.0678      2.1506      2.4025      2.8349      3.4687      4.3321    
  5.4506      6.8267      8.4129      10.091      11.678      12.957      13.698      13.777      13.247      12.329    
  11.339      10.591      12.452      12.604      12.998      13.461      13.764      13.698      13.144      12.114    
  10.745      9.2023      7.6525      6.2308      5.0163      4.0343      3.2755      2.7163      2.3331      2.1093    
  2.0357      2.1093      2.3331      2.7163      3.2755      4.0343      5.0163      6.2308      7.6525      9.2023    
  10.745      12.114      13.144      13.698      13.764      13.461      12.998      12.604      13.428      13.475    
  13.575      13.611      13.443      12.957      12.114      10.969      9.6234      8.2035      6.8339      5.6062    
  4.5682      3.7304      3.0808      2.5998      2.2690      2.0755      2.0117      2.0755      2.2690      2.5998    
  3.0808      3.7304      4.5682      5.6062      6.8339      8.2035      9.6234      10.969      12.114      12.957    
  13.443      13.611      13.575      13.475      13.186      13.160      13.059      12.819      12.372      11.678    
  10.745      9.6234      8.3969      7.1632      6.0077      4.9877      4.1295      3.4355      2.8948      2.4927    
  2.2155      2.0533      1.9999      2.0533      2.2155      2.4927      2.8948      3.4355      4.1295      4.9877    
  6.0077      7.1632      8.3969      9.6234      10.745      11.678      12.372      12.819      13.059      13.160    
  11.980      11.917      11.718      11.358      10.818      10.091      9.2023      8.2035      7.1632      6.1502    
  5.2193      4.4042      3.7185      3.1616      2.7257      2.4006      2.1765      2.0455      2.0025      2.0455    
  2.1765      2.4006      2.7257      3.1616      3.7185      4.4042      5.2193      6.1502      7.1632      8.2035    
  9.2023      10.091      10.818      11.358      11.718      11.917      10.250      10.178      9.9599      9.5900    
  9.0694      8.4129      7.6525      6.8339      6.0077      5.2193      4.5024      3.8761      3.3480      2.9173    
  2.5793      2.3272      2.1541      2.0533      2.0202      2.0533      2.1541      2.3272      2.5793      2.9173    
  3.3480      3.8761      4.5024      5.2193      6.0077      6.8339      7.6525      8.4129      9.0694      9.5900    
  9.9599      10.178      8.3811      8.3153      8.1189      7.7962      7.3585      6.8267      6.2308      5.6062    
  4.9877      4.4042      3.8761      3.4149      3.0254      2.7076      2.4587      2.2741      2.1482      2.0755    
  2.0517      2.0755      2.1482      2.2741      2.4587      2.7076      3.0254      3.4149      3.8761      4.4042    
  4.9877      5.6062      6.2308      6.8267      7.3585      7.7962      8.1189      8.3153      6.6372      6.5847    
  6.4294      6.1787      5.8460      5.4506      5.0163      4.5682      4.1295      3.7185      3.3480      3.0254    
  2.7543      2.5348      2.3649      2.2406      2.1570      2.1093      2.0939      2.1093      2.1570      2.2406    
  2.3649      2.5348      2.7543      3.0254      3.3480      3.7185      4.1295      4.5682      5.0163      5.4506    
  5.8460      6.1787      6.4294      6.5847      5.1695      5.1314      5.0195      4.8408      4.6066      4.3321    
  4.0343      3.7304      3.4355      3.1616      2.9173      2.7076      2.5348      2.3985      2.2961      2.2238    
  2.1767      2.1506      2.1423      2.1506      2.1767      2.2238      2.2961      2.3985      2.5348      2.7076    
  2.9173      3.1616      3.4355      3.7304      4.0343      4.3321      4.6066      4.8408      5.0195      5.1314    
  4.0248      3.9991      3.9237      3.8041      3.6489      3.4687      3.2755      3.0808      2.8948      2.7257    
  2.5793      2.4587      2.3649      2.2961      2.2492      2.2196      2.2026      2.1942      2.1918      2.1942    
  2.2026      2.2196      2.2492      2.2961      2.3649      2.4587      2.5793      2.7257      2.8948      3.0808    
  3.2755      3.4687      3.6489      3.8041      3.9237      3.9991      3.1881      3.1715      3.1228      3.0462    
  2.9477      2.8349      2.7163      2.5998      2.4927      2.4006      2.3272      2.2741      2.2406      2.2238    
  2.2196      2.2230      2.2295      2.2350      2.2372      2.2350      2.2295      2.2230      2.2196      2.2238    
  2.2406      2.2741      2.3272      2.4006      2.4927      2.5998      2.7163      2.8349      2.9477      3.0462    
  3.1228      3.1715      2.6231      2.6123      2.5811      2.5325      2.4710      2.4025      2.3331      2.2690    
  2.2155      2.1765      2.1541      2.1482      2.1570      2.1767      2.2026      2.2295      2.2526      2.2681    
  2.2736      2.2681      2.2526      2.2295      2.2026      2.1767      2.1570      2.1482      2.1541      2.1765    
  2.2155      2.2690      2.3331      2.4025      2.4710      2.5325      2.5811      2.6123      2.2972      2.2897    
  2.2681      2.2350      2.1942      2.1506      2.1093      2.0755      2.0533      2.0455      2.0533      2.0755    
  2.1093      2.1506      2.1942      2.2350      2.2681      2.2897      2.2972      2.2897      2.2681      2.2350    
  2.1942      2.1506      2.1093      2.0755      2.0533      2.0455      2.0533      2.0755      2.1093      2.1506    
  2.1942      2.2350      2.2681      2.2897      2.1907      2.1842      2.1657      2.1376      2.1034      2.0678    
  2.0357      2.0117      1.9999      2.0025      2.0202      2.0517      2.0939      2.1423      2.1918      2.2372    
  2.2736      2.2972      2.3054      2.2972      2.2736      2.2372      2.1918      2.1423      2.0939      2.0517    
  2.0202      2.0025      1.9999      2.0117      2.0357      2.0678      2.1034      2.1376      2.1657      2.1842    
  2.2972      2.2897      2.2681      2.2350      2.1942      2.1506      2.1093      2.0755      2.0533      2.0455    
  2.0533      2.0755      2.1093      2.1506      2.1942      2.2350      2.2681      2.2897      2.2972      2.2897    
  2.2681      2.2350      2.1942      2.1506      2.1093      2.0755      2.0533      2.0455      2.0533      2.0755    
  2.1093      2.1506      2.1942      2.2350      2.2681      2.2897      2.6231      2.6123      2.5811      2.5325    
  2.4710      2.4025      2.3331      2.2690      2.2155      2.1765      2.1541      2.1482      2.1570      2.1767    
  2.2026      2.2295      2.2526      2.2681      2.2736      2.2681      2.2526      2.2295      2.2026      2.1767    
  2.1570      2.1482      2.1541      2.1765      2.2155      2.2690      2.3331      2.4025      2.4710      2.5325    
  2.5811      2.6123      3.1881      3.1715      3.1228      3.0462      2.9477      2.8349      2.7163      2.5998    
  2.4927      2.4006      2.3272      2.2741      2.2406      2.2238      2.2196      2.2230      2.2295      2.2350    
  2.2372      2.2350      2.2295      2.2230      2.2196      2.2238      2.2406      2.2741      2.3272      2.4006    
  2.4927      2.5998      2.7163      2.8349      2.9477      3.0462      3.1228      3.1715      4.0248      3.9991    
  3.9237      3.8041      3.6489      3.4687      3.2755      3.0808      2.8948      2.7257      2.5793      2.4587    
  2.3649      2.2961      2.2492      2.2196      2.2026      2.1942      2.1918      2.1942      2.2026      2.2196    
  2.2492      2.2961      2.3649      2.4587      2.5793      2.7257      2.8948      3.0808      3.2755      3.4687    
  3.6489      3.8041      3.9237      3.9991      5.1695      5.1314      5.0195      4.8408      4.6066      4.3321    
  4.0343      3.7304      3.4355      3.1616      2.9173      2.7076      2.5348      2.3985      2.2961      2.2238    
  2.1767      2.1506      2.1423      2.1506      2.1767      2.2238      2.2961      2.3985      2.5348      2.7076    
  2.9173      3.1616      3.4355      3.7304      4.0343      4.3321      4.6066      4.8408      5.0195      5.1314    
  6.6372      6.5847      6.4294      6.1787      5.8460      5.4506      5.0163      4.5682      4.1295      3.7185    
  3.3480      3.0254      2.7543      2.5348      2.3649      2.2406      2.1570      2.1093      2.0939      2.1093    
  2.1570      2.2406      2.3649      2.5348      2.7543      3.0254      3.3480      3.7185      4.1295      4.5682    
  5.0163      5.4506      5.8460      6.1787      6.4294      6.5847      8.3811      8.3153      8.1189      7.7962    
  7.3585      6.8267      6.2308      5.6062      4.9877      4.4042      3.8761      3.4149      3.0254      2.7076    
  2.4587      2.2741      2.1482      2.0755      2.0517      2.0755      2.1482      2.2741      2.4587      2.7076    
  3.0254      3.4149      3.8761      4.4042      4.9877      5.6062      6.2308      6.8267      7.3585      7.7962    
  8.1189      8.3153      10.250      10.178      9.9599      9.5900      9.0694      8.4129      7.6525      6.8339    
  6.0077      5.2193      4.5024      3.8761      3.3480      2.9173      2.5793      2.3272      2.1541      2.0533    
  2.0202      2.0533      2.1541      2.3272      2.5793      2.9173      3.3480      3.8761      4.5024      5.2193    
  6.0077      6.8339      7.6525      8.4129      9.0694      9.5900      9.9599      10.178      11.980      11.917    
  11.718      11.358      10.818      10.091      9.2023      8.2035      7.1632      6.1502      5.2193      4.4042    
  3.7185      3.1616      2.7257      2.4006      2.1765      2.0455      2.0025      2.0455      2.1765      2.4006    
  2.7257      3.1616      3.7185      4.4042      5.2193      6.1502      7.1632      8.2035      9.2023      10.091    
  10.818      11.358      11.718      11.917      13.186      13.160      13.059      12.819      12.372      11.678    
  10.745      9.6234      8.3969      7.1632      6.0077      4.9877      4.1295      3.4355      2.8948      2.4927    
  2.2155      2.0533      1.9999      2.0533      2.2155      2.4927      2.8948      3.4355      4.1295      4.9877    
  6.0077      7.1632      8.3969      9.6234      10.745      11.678      12.372      12.819      13.059      13.160    
  13.428      13.475      13.575      13.611      13.443      12.957      12.114      10.969      9.6234      8.2035    
  6.8339      5.6062      4.5682      3.7304      3.0808      2.5998      2.2690      2.0755      2.0117      2.0755    
  2.2690      2.5998      3.0808      3.7304      4.5682      5.6062      6.8339      8.2035      9.6234      10.969    
  12.114      12.957      13.443      13.611      13.575      13.475      12.452      12.604      12.998      13.461    
  13.764      13.698      13.144      12.114      10.745      9.2023      7.6525      6.2308      5.0163      4.0343    
  3.2755      2.7163      2.3331      2.1093      2.0357      2.1093      2.3331      2.7163      3.2755      4.0343    
  5.0163      6.2308      7.6525      9.2023      10.745      12.114      13.144      13.698      13.764      13.461    
  12.998      12.604      10.314      10.591      11.339      12.329      13.247      13.777      13.698      12.957    
  11.678      10.091      8.4129      6.8267      5.4506      4.3321      3.4687      2.8349      2.4025      2.1506    
  2.0678      2.1506      2.4025      2.8349      3.4687      4.3321      5.4506      6.8267      8.4129      10.091    
  11.678      12.957      13.698      13.777      13.247      12.329      11.339      10.591      7.3772      7.7810    