Spinel                                  
   1.00000000000000     
     4.000000    0.000000    0.000000
     0.000000    4.000000    0.000000
     0.000000    0.000000    4.000000
   Al
     2
Direct
  0.000000  0.000000  0.000000
  0.500000  0.500000  0.500000
 
   36   36   36
 -.19181951315E+01 -.12174013559E+01 0.76118454587E+00 0.36634757805E+01 0.69574495713E+01
 0.10024124639E+02 0.12289051407E+02 0.13373444233E+02 0.13207877611E+02 0.12041869485E+02
 0.10322341814E+02 0.84477773414E+01 0.66908356967E+01 0.52085876897E+01 0.40515104955E+01
 0.32055996079E+01 0.26345454344E+01 0.23053504851E+01 0.21977974231E+01 0.23053504851E+01
 0.26345454344E+01 0.32055996079E+01 0.40515104955E+01 0.52085876897E+01 0.66908356967E+01
 0.84477773414E+01 0.10322341814E+02 0.12041869485E+02 0.13207877611E+02 0.13373444233E+02
 0.12289051407E+02 0.10024124639E+02 0.69574495713E+01 0.36634757805E+01 0.76118454587E+00
 -.12174013559E+01 -.12174013559E+01 -.53587021684E+00 0.13861924459E+01 0.41987159975E+01
 0.73771758218E+01 0.10314444744E+02 0.12451960292E+02 0.13427938899E+02 0.13185970839E+02
 0.11980008683E+02 0.10250221356E+02 0.83810980164E+01 0.66372227642E+01 0.51694783260E+01
 0.40248479559E+01 0.31881291386E+01 0.26230793521E+01 0.22971899168E+01 0.21906824236E+01
 0.22971899168E+01 0.26230793521E+01 0.31881291386E+01 0.40248479559E+01 0.51694783260E+01
 0.66372227642E+01 0.83810980164E+01 0.10250221356E+02 0.11980008683E+02 0.13185970839E+02
 0.13427938899E+02 0.12451960292E+02 0.10314444744E+02 0.73771758218E+01 0.41987159975E+01
 0.13861924459E+01 -.53587021684E+00 0.76118454587E+00 0.13861924459E+01 0.31426521469E+01
 0.56930679712E+01 0.85361327414E+01 0.11100670485E+02 0.12875086252E+02 0.13546474151E+02
 0.13094426886E+02 0.11783455165E+02 0.10030836124E+02 0.81819382315E+01 0.64787016525E+01
 0.50545223568E+01 0.39467673003E+01 0.31371272859E+01 0.25897483669E+01 0.22736038899E+01
 0.21701850098E+01 0.22736038899E+01 0.25897483669E+01 0.31371272859E+01 0.39467673003E+01
 0.50545223568E+01 0.64787016525E+01 0.81819382315E+01 0.10030836124E+02 0.11783455165E+02
 0.13094426886E+02 0.13546474151E+02 0.12875086252E+02 0.11100670485E+02 0.85361327414E+01
 0.56930679712E+01 0.31426521469E+01 0.13861924459E+01 0.36634757805E+01 0.41987159975E+01
 0.56930679712E+01 0.78316460210E+01 0.10153851472E+02 0.12149009449E+02 0.13380793438E+02
 0.13610426842E+02 0.12867819005E+02 0.11426850086E+02 0.96585348183E+01 0.78545065825E+01
 0.62227110628E+01 0.48708263219E+01 0.38228276839E+01 0.30566556771E+01 0.25376153437E+01
 0.22371586804E+01 0.21387318531E+01 0.22371586804E+01 0.25376153437E+01 0.30566556771E+01
 0.38228276839E+01 0.48708263219E+01 0.62227110628E+01 0.78545065825E+01 0.96585348183E+01
 0.11426850086E+02 0.12867819005E+02 0.13610426842E+02 0.13380793438E+02 0.12149009449E+02
 0.10153851472E+02 0.78316460210E+01 0.56930679712E+01 0.41987159975E+01 0.69574495713E+01
 0.73771758218E+01 0.85361327414E+01 0.10153851472E+02 0.11829315045E+02 0.13135440047E+02
 0.13733008349E+02 0.13471391799E+02 0.12432552373E+02 0.10886854924E+02 0.91333537869E+01
 0.74099036452E+01 0.58827146923E+01 0.46300085834E+01 0.36617282569E+01 0.29529555074E+01
 0.24713620842E+01 0.21917695441E+01 0.21000212798E+01 0.21917695441E+01 0.24713620842E+01
 0.29529555074E+01 0.36617282569E+01 0.46300085834E+01 0.58827146923E+01 0.74099036452E+01
 0.91333537869E+01 0.10886854924E+02 0.12432552373E+02 0.13471391799E+02 0.13733008349E+02
 0.13135440047E+02 0.11829315045E+02 0.10153851472E+02 0.85361327414E+01 0.73771758218E+01
 0.10024124639E+02 0.10314444744E+02 0.11100670485E+02 0.12149009449E+02 0.13135440047E+02
 0.13733758823E+02 0.13712516003E+02 0.13008690449E+02 0.11744847358E+02 0.10157504022E+02
 0.84694602513E+01 0.68689813749E+01 0.54783122398E+01 0.43473776824E+01 0.34744167895E+01
 0.28337492260E+01 0.23967655956E+01 0.21422627564E+01 0.20586059617E+01 0.21422627564E+01
 0.23967655956E+01 0.28337492260E+01 0.34744167895E+01 0.43473776824E+01 0.54783122398E+01
 0.68689813749E+01 0.84694602513E+01 0.10157504022E+02 0.11744847358E+02 0.13008690449E+02
 0.13712516003E+02 0.13733758823E+02 0.13135440047E+02 0.12149009449E+02 0.11100670485E+02
 0.10314444744E+02 0.12289051407E+02 0.12451960292E+02 0.12875086252E+02 0.13380793438E+02
 0.13733008349E+02 0.13712516003E+02 0.13191521811E+02 0.12179490010E+02 0.10812346218E+02
 0.92619079804E+01 0.76988019870E+01 0.62620952293E+01 0.50336674126E+01 0.40403377569E+01
 0.32728944516E+01 0.27074272703E+01 0.23201121726E+01 0.20938810259E+01 0.20194180736E+01
 0.20938810259E+01 0.23201121726E+01 0.27074272703E+01 0.32728944516E+01 0.40403377569E+01
 0.50336674126E+01 0.62620952293E+01 0.76988019870E+01 0.92619079804E+01 0.10812346218E+02
 0.12179490010E+02 0.13191521811E+02 0.13712516003E+02 0.13733008349E+02 0.13380793438E+02
 0.12875086252E+02 0.12451960292E+02 0.13373444233E+02 0.13427938899E+02 0.13546474151E+02
 0.13610426842E+02 0.13471391799E+02 0.13008690449E+02 0.12179490010E+02 0.11036602817E+02
 0.96843677286E+01 0.82522226847E+01 0.68676656865E+01 0.56252014596E+01 0.45744051244E+01
 0.37263134973E+01 0.30689393568E+01 0.25822372486E+01 0.22475933292E+01 0.20517411299E+01
 0.19872377301E+01 0.20517411299E+01 0.22475933292E+01 0.25822372486E+01 0.30689393568E+01
 0.37263134973E+01 0.45744051244E+01 0.56252014596E+01 0.68676656865E+01 0.82522226847E+01
 0.96843677286E+01 0.11036602817E+02 0.12179490010E+02 0.13008690449E+02 0.13471391799E+02
 0.13610426842E+02 0.13546474151E+02 0.13427938899E+02 0.13207877611E+02 0.13185970839E+02
 0.13094426886E+02 0.12867819005E+02 0.12432552373E+02 0.11744847358E+02 0.10812346218E+02
 0.96843677286E+01 0.84464581581E+01 0.71982788426E+01 0.60276832476E+01 0.49938773133E+01
 0.41240896175E+01 0.34208212770E+01 0.28730271759E+01 0.24655681156E+01 0.21846992426E+01
 0.20202465254E+01 0.19661048107E+01 0.20202465254E+01 0.21846992426E+01 0.24655681156E+01
 0.28730271759E+01 0.34208212770E+01 0.41240896175E+01 0.49938773133E+01 0.60276832476E+01
 0.71982788426E+01 0.84464581581E+01 0.96843677286E+01 0.10812346218E+02 0.11744847358E+02
 0.12432552373E+02 0.12867819005E+02 0.13094426886E+02 0.13185970839E+02 0.12041869485E+02
 0.11980008683E+02 0.11783455165E+02 0.11426850086E+02 0.10886854924E+02 0.10157504022E+02
 0.92619079804E+01 0.82522226847E+01 0.71982788426E+01 0.61706026847E+01 0.52255344733E+01
 0.43978431936E+01 0.37015980624E+01 0.31362323838E+01 0.26936236256E+01 0.23633686182E+01
 0.21356405721E+01 0.20025054861E+01 0.19587398338E+01 0.20025054861E+01 0.21356405721E+01
 0.23633686182E+01 0.26936236256E+01 0.31362323838E+01 0.37015980624E+01 0.43978431936E+01
 0.52255344733E+01 0.61706026847E+01 0.71982788426E+01 0.82522226847E+01 0.92619079804E+01
 0.10157504022E+02 0.10886854924E+02 0.11426850086E+02 0.11783455165E+02 0.11980008683E+02
 0.10322341814E+02 0.10250221356E+02 0.10030836124E+02 0.96585348183E+01 0.91333537869E+01
 0.84694602513E+01 0.76988019870E+01 0.68676656865E+01 0.60276832476E+01 0.52255344733E+01
 0.44956483981E+01 0.38579717595E+01 0.33200915220E+01 0.28813696797E+01 0.25368274872E+01
 0.22797023933E+01 0.21028670304E+01 0.19998724772E+01 0.19661048107E+01 0.19998724772E+01
 0.21028670304E+01 0.22797023933E+01 0.25368274872E+01 0.28813696797E+01 0.33200915220E+01
 0.38579717595E+01 0.44956483981E+01 0.52255344733E+01 0.60276832476E+01 0.68676656865E+01
 0.76988019870E+01 0.84694602513E+01 0.91333537869E+01 0.96585348183E+01 0.10030836124E+02
 0.10250221356E+02 0.84477773414E+01 0.83810980164E+01 0.81819382315E+01 0.78545065825E+01
 0.74099036452E+01 0.68689813749E+01 0.62620952293E+01 0.56252014596E+01 0.49938773133E+01
 0.43978431936E+01 0.38579717595E+01 0.33862047103E+01 0.29874023454E+01 0.26616803558E+01
 0.24062320074E+01 0.22164532662E+01 0.20867840580E+01 0.20117431659E+01 0.19872377301E+01
 0.20117431659E+01 0.20867840580E+01 0.22164532662E+01 0.24062320074E+01 0.26616803558E+01
 0.29874023454E+01 0.33862047103E+01 0.38579717595E+01 0.43978431936E+01 0.49938773133E+01
 0.56252014596E+01 0.62620952293E+01 0.68689813749E+01 0.74099036452E+01 0.78545065825E+01
 0.81819382315E+01 0.83810980164E+01 0.66908356967E+01 0.66372227642E+01 0.64787016525E+01
 0.62227110628E+01 0.58827146923E+01 0.54783122398E+01 0.50336674126E+01 0.45744051244E+01
 0.41240896175E+01 0.37015980624E+01 0.33200915220E+01 0.29874023454E+01 0.27071113898E+01
 0.24796191425E+01 0.23029249844E+01 0.21732446244E+01 0.20857610865E+01 0.20356738770E+01
 0.20194180736E+01 0.20356738770E+01 0.20857610865E+01 0.21732446244E+01 0.23029249844E+01
 0.24796191425E+01 0.27071113898E+01 0.29874023454E+01 0.33200915220E+01 0.37015980624E+01
 0.41240896175E+01 0.45744051244E+01 0.50336674126E+01 0.54783122398E+01 0.58827146923E+01
 0.62227110628E+01 0.64787016525E+01 0.66372227642E+01 0.52085876897E+01 0.51694783260E+01
 0.50545223568E+01 0.48708263219E+01 0.46300085834E+01 0.43473776824E+01 0.40403377569E+01
 0.37263134973E+01 0.34208212770E+01 0.31362323838E+01 0.28813696797E+01 0.26616803558E+01
 0.24796191425E+01 0.23350467721E+01 0.22256725530E+01 0.21476613764E+01 0.20964624737E+01
 0.20677939330E+01 0.20586059617E+01 0.20677939330E+01 0.20964624737E+01 0.21476613764E+01
 0.22256725530E+01 0.23350467721E+01 0.24796191425E+01 0.26616803558E+01 0.28813696797E+01
 0.31362323838E+01 0.34208212770E+01 0.37263134973E+01 0.40403377569E+01 0.43473776824E+01
 0.46300085834E+01 0.48708263219E+01 0.50545223568E+01 0.51694783260E+01 0.40515104955E+01
 0.40248479559E+01 0.39467673003E+01 0.38228276839E+01 0.36617282569E+01 0.34744167895E+01
 0.32728944516E+01 0.30689393568E+01 0.28730271759E+01 0.26936236256E+01 0.25368274872E+01
 0.24062320074E+01 0.23029249844E+01 0.22256725530E+01 0.21713755654E+01 0.21357973165E+01
 0.21144398324E+01 0.21033936530E+01 0.21000212798E+01 0.21033936530E+01 0.21144398324E+01
 0.21357973165E+01 0.21713755654E+01 0.22256725530E+01 0.23029249844E+01 0.24062320074E+01
 0.25368274872E+01 0.26936236256E+01 0.28730271759E+01 0.30689393568E+01 0.32728944516E+01
 0.34744167895E+01 0.36617282569E+01 0.38228276839E+01 0.39467673003E+01 0.40248479559E+01
 0.32055996079E+01 0.31881291386E+01 0.31371272859E+01 0.30566556771E+01 0.29529555074E+01
 0.28337492260E+01 0.27074272703E+01 0.25822372486E+01 0.24655681156E+01 0.23633686182E+01
 0.22797023933E+01 0.22164532662E+01 0.21732446244E+01 0.21476613764E+01 0.21357973165E+01
 0.21330316282E+01 0.21348520406E+01 0.21375541054E+01 0.21387318531E+01 0.21375541054E+01
 0.21348520406E+01 0.21330316282E+01 0.21357973165E+01 0.21476613764E+01 0.21732446244E+01
 0.22164532662E+01 0.22797023933E+01 0.23633686182E+01 0.24655681156E+01 0.25822372486E+01
 0.27074272703E+01 0.28337492260E+01 0.29529555074E+01 0.30566556771E+01 0.31371272859E+01
 0.31881291386E+01 0.26345454344E+01 0.26230793521E+01 0.25897483669E+01 0.25376153437E+01
 0.24713620842E+01 0.23967655956E+01 0.23201121726E+01 0.22475933292E+01 0.21846992426E+01
 0.21356405721E+01 0.21028670304E+01 0.20867840580E+01 0.20857610865E+01 0.20964624737E+01
 0.21144398324E+01 0.21348520406E+01 0.21531647313E+01 0.21657270041E+01 0.21701850098E+01
 0.21657270041E+01 0.21531647313E+01 0.21348520406E+01 0.21144398324E+01 0.20964624737E+01
 0.20857610865E+01 0.20867840580E+01 0.21028670304E+01 0.21356405721E+01 0.21846992426E+01
 0.22475933292E+01 0.23201121726E+01 0.23967655956E+01 0.24713620842E+01 0.25376153437E+01
 0.25897483669E+01 0.26230793521E+01 0.23053504851E+01 0.22971899168E+01 0.22736038899E+01
 0.22371586804E+01 0.21917695441E+01 0.21422627564E+01 0.20938810259E+01 0.20517411299E+01
 0.20202465254E+01 0.20025054861E+01 0.19998724772E+01 0.20117431659E+01 0.20356738770E+01
 0.20677939330E+01 0.21033936530E+01 0.21375541054E+01 0.21657270041E+01 0.21842352771E+01
 0.21906824236E+01 0.21842352771E+01 0.21657270041E+01 0.21375541054E+01 0.21033936530E+01
 0.20677939330E+01 0.20356738770E+01 0.20117431659E+01 0.19998724772E+01 0.20025054861E+01
 0.20202465254E+01 0.20517411299E+01 0.20938810259E+01 0.21422627564E+01 0.21917695441E+01
 0.22371586804E+01 0.22736038899E+01 0.22971899168E+01 0.21977974231E+01 0.21906824236E+01
 0.21701850098E+01 0.21387318531E+01 0.21000212798E+01 0.20586059617E+01 0.20194180736E+01
 0.19872377301E+01 0.19661048107E+01 0.19587398338E+01 0.19661048107E+01 0.19872377301E+01
 0.20194180736E+01 0.20586059617E+01 0.21000212798E+01 0.21387318531E+01 0.21701850098E+01
 0.21906824236E+01 0.21977974231E+01 0.21906824236E+01 0.21701850098E+01 0.21387318531E+01
 0.21000212798E+01 0.20586059617E+01 0.20194180736E+01 0.19872377301E+01 0.19661048107E+01
 0.19587398338E+01 0.19661048107E+01 0.19872377301E+01 0.20194180736E+01 0.20586059617E+01
 0.21000212798E+01 0.21387318531E+01 0.21701850098E+01 0.21906824236E+01 0.23053504851E+01
 0.22971899168E+01 0.22736038899E+01 0.22371586804E+01 0.21917695441E+01 0.21422627564E+01
 0.20938810259E+01 0.20517411299E+01 0.20202465254E+01 0.20025054861E+01 0.19998724772E+01
 0.20117431659E+01 0.20356738770E+01 0.20677939330E+01 0.21033936530E+01 0.21375541054E+01
 0.21657270041E+01 0.21842352771E+01 0.21906824236E+01 0.21842352771E+01 0.21657270041E+01
 0.21375541054E+01 0.21033936530E+01 0.20677939330E+01 0.20356738770E+01 0.20117431659E+01
 0.19998724772E+01 0.20025054861E+01 0.20202465254E+01 0.20517411299E+01 0.20938810259E+01
 0.21422627564E+01 0.21917695441E+01 0.22371586804E+01 0.22736038899E+01 0.22971899168E+01
 0.26345454344E+01 0.26230793521E+01 0.25897483669E+01 0.25376153437E+01 0.24713620842E+01
 0.23967655956E+01 0.23201121726E+01 0.22475933292E+01 0.21846992426E+01 0.21356405721E+01
 0.21028670304E+01 0.20867840580E+01 0.20857610865E+01 0.20964624737E+01 0.21144398324E+01
 0.21348520406E+01 0.21531647313E+01 0.21657270041E+01 0.21701850098E+01 0.21657270041E+01
 0.21531647313E+01 0.21348520406E+01 0.21144398324E+01 0.20964624737E+01 0.20857610865E+01
 0.20867840580E+01 0.21028670304E+01 0.21356405721E+01 0.21846992426E+01 0.22475933292E+01
 0.23201121726E+01 0.23967655956E+01 0.24713620842E+01 0.25376153437E+01 0.25897483669E+01
 0.26230793521E+01 0.32055996079E+01 0.31881291386E+01 0.31371272859E+01 0.30566556771E+01
 0.29529555074E+01 0.28337492260E+01 0.27074272703E+01 0.25822372486E+01 0.24655681156E+01
 0.23633686182E+01 0.22797023933E+01 0.22164532662E+01 0.21732446244E+01 0.21476613764E+01
 0.21357973165E+01 0.21330316282E+01 0.21348520406E+01 0.21375541054E+01 0.21387318531E+01
 0.21375541054E+01 0.21348520406E+01 0.21330316282E+01 0.21357973165E+01 0.21476613764E+01
 0.21732446244E+01 0.22164532662E+01 0.22797023933E+01 0.23633686182E+01 0.24655681156E+01
 0.25822372486E+01 0.27074272703E+01 0.28337492260E+01 0.29529555074E+01 0.30566556771E+01
 0.31371272859E+01 0.31881291386E+01 0.40515104955E+01 0.40248479559E+01 0.39467673003E+01
 0.38228276839E+01 0.36617282569E+01 0.34744167895E+01 0.32728944516E+01 0.30689393568E+01
 0.28730271759E+01 0.26936236256E+01 0.25368274872E+01 0.24062320074E+01 0.23029249844E+01
 0.22256725530E+01 0.21713755654E+01 0.21357973165E+01 0.21144398324E+01 0.21033936530E+01
 0.21000212798E+01 0.21033936530E+01 0.21144398324E+01 0.21357973165E+01 0.21713755654E+01
 0.22256725530E+01 0.23029249844E+01 0.24062320074E+01 0.25368274872E+01 0.26936236256E+01
 0.28730271759E+01 0.30689393568E+01 0.32728944516E+01 0.34744167895E+01 0.36617282569E+01
 0.38228276839E+01 0.39467673003E+01 0.40248479559E+01 0.52085876897E+01 0.51694783260E+01
 0.50545223568E+01 0.48708263219E+01 0.46300085834E+01 0.43473776824E+01 0.40403377569E+01
 0.37263134973E+01 0.34208212770E+01 0.31362323838E+01 0.28813696797E+01 0.26616803558E+01
 0.24796191425E+01 0.23350467721E+01 0.22256725530E+01 0.21476613764E+01 0.20964624737E+01
 0.20677939330E+01 0.20586059617E+01 0.20677939330E+01 0.20964624737E+01 0.21476613764E+01
 0.22256725530E+01 0.23350467721E+01 0.24796191425E+01 0.26616803558E+01 0.28813696797E+01
 0.31362323838E+01 0.34208212770E+01 0.37263134973E+01 0.40403377569E+01 0.43473776824E+01
 0.46300085834E+01 0.48708263219E+01 0.50545223568E+01 0.51694783260E+01 0.66908356967E+01
 0.66372227642E+01 0.64787016525E+01 0.62227110628E+01 0.58827146923E+01 0.54783122398E+01
 0.50336674126E+01 0.45744051244E+01 0.41240896175E+01 0.37015980624E+01 0.33200915220E+01
 0.29874023454E+01 0.27071113898E+01 0.24796191425E+01 0.23029249844E+01 0.21732446244E+01
 0.20857610865E+01 0.20356738770E+01 0.20194180736E+01 0.20356738770E+01 0.20857610865E+01
 0.21732446244E+01 0.23029249844E+01 0.24796191425E+01 0.27071113898E+01 0.29874023454E+01
 0.33200915220E+01 0.37015980624E+01 0.41240896175E+01 0.45744051244E+01 0.50336674126E+01
 0.54783122398E+01 0.58827146923E+01 0.62227110628E+01 0.64787016525E+01 0.66372227642E+01
 0.84477773414E+01 0.83810980164E+01 0.81819382315E+01 0.78545065825E+01 0.74099036452E+01
 0.68689813749E+01 0.62620952293E+01 0.56252014596E+01 0.49938773133E+01 0.43978431936E+01
 0.38579717595E+01 0.33862047103E+01 0.29874023454E+01 0.26616803558E+01 0.24062320074E+01
 0.22164532662E+01 0.20867840580E+01 0.20117431659E+01 0.19872377301E+01 0.20117431659E+01
 0.20867840580E+01 0.22164532662E+01 0.24062320074E+01 0.26616803558E+01 0.29874023454E+01
 0.33862047103E+01 0.38579717595E+01 0.43978431936E+01 0.49938773133E+01 0.56252014596E+01
 0.62620952293E+01 0.68689813749E+01 0.74099036452E+01 0.78545065825E+01 0.81819382315E+01
 0.83810980164E+01 0.10322341814E+02 0.10250221356E+02 0.10030836124E+02 0.96585348183E+01
 0.91333537869E+01 0.84694602513E+01 0.76988019870E+01 0.68676656865E+01 0.60276832476E+01
 0.52255344733E+01 0.44956483981E+01 0.38579717595E+01 0.33200915220E+01 0.28813696797E+01
 0.25368274872E+01 0.22797023933E+01 0.21028670304E+01 0.19998724772E+01 0.19661048107E+01
 0.19998724772E+01 0.21028670304E+01 0.22797023933E+01 0.25368274872E+01 0.28813696797E+01
 0.33200915220E+01 0.38579717595E+01 0.44956483981E+01 0.52255344733E+01 0.60276832476E+01
 0.68676656865E+01 0.76988019870E+01 0.84694602513E+01 0.91333537869E+01 0.96585348183E+01
 0.10030836124E+02 0.10250221356E+02 0.12041869485E+02 0.11980008683E+02 0.11783455165E+02
 0.11426850086E+02 0.10886854924E+02 0.10157504022E+02 0.92619079804E+01 0.82522226847E+01
 0.71982788426E+01 0.61706026847E+01 0.52255344733E+01 0.43978431936E+01 0.37015980624E+01
 0.31362323838E+01 0.26936236256E+01 0.23633686182E+01 0.21356405721E+01 0.20025054861E+01
 0.19587398338E+01 0.20025054861E+01 0.21356405721E+01 0.23633686182E+01 0.26936236256E+01
 0.31362323838E+01 0.37015980624E+01 0.43978431936E+01 0.52255344733E+01 0.61706026847E+01
 0.71982788426E+01 0.82522226847E+01 0.92619079804E+01 0.10157504022E+02 0.10886854924E+02
 0.11426850086E+02 0.11783455165E+02 0.11980008683E+02 0.13207877611E+02 0.13185970839E+02
 0.13094426886E+02 0.12867819005E+02 0.12432552373E+02 0.11744847358E+02 0.10812346218E+02
 0.96843677286E+01 0.84464581581E+01 0.71982788426E+01 0.60276832476E+01 0.49938773133E+01
 0.41240896175E+01 0.34208212770E+01 0.28730271759E+01 0.24655681156E+01 0.21846992426E+01
 0.20202465254E+01 0.19661048107E+01 0.20202465254E+01 0.21846992426E+01 0.24655681156E+01
 0.28730271759E+01 0.34208212770E+01 0.41240896175E+01 0.49938773133E+01 0.60276832476E+01
 0.71982788426E+01 0.84464581581E+01 0.96843677286E+01 0.10812346218E+02 0.11744847358E+02
 0.12432552373E+02 0.12867819005E+02 0.13094426886E+02 0.13185970839E+02 0.13373444233E+02
 0.13427938899E+02 0.13546474151E+02 0.13610426842E+02 0.13471391799E+02 0.13008690449E+02
 0.12179490010E+02 0.11036602817E+02 0.96843677286E+01 0.82522226847E+01 0.68676656865E+01
 0.56252014596E+01 0.45744051244E+01 0.37263134973E+01 0.30689393568E+01 0.25822372486E+01
 0.22475933292E+01 0.20517411299E+01 0.19872377301E+01 0.20517411299E+01 0.22475933292E+01
 0.25822372486E+01 0.30689393568E+01 0.37263134973E+01 0.45744051244E+01 0.56252014596E+01
 0.68676656865E+01 0.82522226847E+01 0.96843677286E+01 0.11036602817E+02 0.12179490010E+02
 0.13008690449E+02 0.13471391799E+02 0.13610426842E+02 0.13546474151E+02 0.13427938899E+02
 0.12289051407E+02 0.12451960292E+02 0.12875086252E+02 0.13380793438E+02 0.13733008349E+02
 0.13712516003E+02 0.13191521811E+02 0.12179490010E+02 0.10812346218E+02 0.92619079804E+01
 0.76988019870E+01 0.62620952293E+01 0.50336674126E+01 0.40403377569E+01 0.32728944516E+01
 0.27074272703E+01 0.23201121726E+01 0.20938810259E+01 0.20194180736E+01 0.20938810259E+01
 0.23201121726E+01 0.27074272703E+01 0.32728944516E+01 0.40403377569E+01 0.50336674126E+01
 0.62620952293E+01 0.76988019870E+01 0.92619079804E+01 0.10812346218E+02 0.12179490010E+02
 0.13191521811E+02 0.13712516003E+02 0.13733008349E+02 0.13380793438E+02 0.12875086252E+02
 0.12451960292E+02 0.10024124639E+02 0.10314444744E+02 0.11100670485E+02 0.12149009449E+02
 0.13135440047E+02 0.13733758823E+02 0.13712516003E+02 0.13008690449E+02 0.11744847358E+02
 0.10157504022E+02 0.84694602513E+01 0.68689813749E+01 0.54783122398E+01 0.43473776824E+01
 0.34744167895E+01 0.28337492260E+01 0.23967655956E+01 0.21422627564E+01 0.20586059617E+01
 0.21422627564E+01 0.23967655956E+01 0.28337492260E+01 0.34744167895E+01 0.43473776824E+01
 0.54783122398E+01 0.68689813749E+01 0.84694602513E+01 0.10157504022E+02 0.11744847358E+02
 0.13008690449E+02 0.13712516003E+02 0.13733758823E+02 0.13135440047E+02 0.12149009449E+02
 0.11100670485E+02 0.10314444744E+02 0.69574495713E+01 0.73771758218E+01 0.85361327414E+01
 0.10153851472E+02 0.11829315045E+02 0.13135440047E+02 0.13733008349E+02 0.13471391799E+02
 0.12432552373E+02 0.10886854924E+02 0.91333537869E+01 0.74099036452E+01 0.58827146923E+01
 0.46300085834E+01 0.36617282569E+01 0.29529555074E+01 0.24713620842E+01 0.21917695441E+01
 0.21000212798E+01 0.21917695441E+01 0.24713620842E+01 0.29529555074E+01 0.36617282569E+01
 0.46300085834E+01 0.58827146923E+01 0.74099036452E+01 0.91333537869E+01 0.10886854924E+02
 0.12432552373E+02 0.13471391799E+02 0.13733008349E+02 0.13135440047E+02 0.11829315045E+02
 0.10153851472E+02 0.85361327414E+01 0.73771758218E+01 0.36634757805E+01 0.41987159975E+01
 0.56930679712E+01 0.78316460210E+01 0.10153851472E+02 0.12149009449E+02 0.13380793438E+02
 0.13610426842E+02 0.12867819005E+02 0.11426850086E+02 0.96585348183E+01 0.78545065825E+01
 0.62227110628E+01 0.48708263219E+01 0.38228276839E+01 0.30566556771E+01 0.25376153437E+01
 0.22371586804E+01 0.21387318531E+01 0.22371586804E+01 0.25376153437E+01 0.30566556771E+01
 0.38228276839E+01 0.48708263219E+01 0.62227110628E+01 0.78545065825E+01 0.96585348183E+01
 0.11426850086E+02 0.12867819005E+02 0.13610426842E+02 0.13380793438E+02 0.12149009449E+02
 0.10153851472E+02 0.78316460210E+01 0.56930679712E+01 0.41987159975E+01 0.76118454587E+00
 0.13861924459E+01 0.31426521469E+01 0.56930679712E+01 0.85361327414E+01 0.11100670485E+02
 0.12875086252E+02 0.13546474151E+02 0.13094426886E+02 0.11783455165E+02 0.10030836124E+02
 0.81819382315E+01 0.64787016525E+01 0.50545223568E+01 0.39467673003E+01 0.31371272859E+01
 0.25897483669E+01 0.22736038899E+01 0.21701850098E+01 0.22736038899E+01 0.25897483669E+01
 0.31371272859E+01 0.39467673003E+01 0.50545223568E+01 0.64787016525E+01 0.81819382315E+01
 0.10030836124E+02 0.11783455165E+02 0.13094426886E+02 0.13546474151E+02 0.12875086252E+02
 0.11100670485E+02 0.85361327414E+01 0.56930679712E+01 0.31426521469E+01 0.13861924459E+01
 -.12174013559E+01 -.53587021684E+00 0.13861924459E+01 0.41987159975E+01 0.73771758218E+01
 0.10314444744E+02 0.12451960292E+02 0.13427938899E+02 0.13185970839E+02 0.11980008683E+02
 0.10250221356E+02 0.83810980164E+01 0.66372227642E+01 0.51694783260E+01 0.40248479559E+01
 0.31881291386E+01 0.26230793521E+01 0.22971899168E+01 0.21906824236E+01 0.22971899168E+01
 0.26230793521E+01 0.31881291386E+01 0.40248479559E+01 0.51694783260E+01 0.66372227642E+01
 0.83810980164E+01 0.10250221356E+02 0.11980008683E+02 0.13185970839E+02 0.13427938899E+02
 0.12451960292E+02 0.10314444744E+02 0.73771758218E+01 0.41987159975E+01 0.13861924459E+01
 -.53587021684E+00 -.12174013559E+01 -.53587021684E+00 0.13861924459E+01 0.41987159975E+01
 0.73771758218E+01 0.10314444744E+02 0.12451960292E+02 0.13427938899E+02 0.13185970839E+02
 0.11980008683E+02 0.10250221356E+02 0.83810980164E+01 0.66372227642E+01 0.51694783260E+01
 0.40248479559E+01 0.31881291386E+01 0.26230793521E+01 0.22971899168E+01 0.21906824236E+01
 0.22971899168E+01 0.26230793521E+01 0.31881291386E+01 0.40248479559E+01 0.51694783260E+01
 0.66372227642E+01 0.83810980164E+01 0.10250221356E+02 0.11980008683E+02 0.13185970839E+02
 0.13427938899E+02 0.12451960292E+02 0.10314444744E+02 0.73771758218E+01 0.41987159975E+01
 0.13861924459E+01 -.53587021684E+00 -.53587021684E+00 0.12656854554E+00 0.19926502885E+01
 0.47164232167E+01 0.77810172299E+01 0.10591278126E+02 0.12604465914E+02 0.13475463397E+02
 0.13160345302E+02 0.11916989677E+02 0.10178330855E+02 0.83152998856E+01 0.65846956168E+01
 0.51314123293E+01 0.39991022798E+01 0.31714562022E+01 0.26123315744E+01 0.22897082832E+01
 0.21842352771E+01 0.22897082832E+01 0.26123315744E+01 0.31714562022E+01 0.39991022798E+01
 0.51314123293E+01 0.65846956168E+01 0.83152998856E+01 0.10178330855E+02 0.11916989677E+02
 0.13160345302E+02 0.13475463397E+02 0.12604465914E+02 0.10591278126E+02 0.77810172299E+01
 0.47164232167E+01 0.19926502885E+01 0.12656854554E+00 0.13861924459E+01 0.19926502885E+01
 0.36948561515E+01 0.61597361592E+01 0.88940652348E+01 0.11338909226E+02 0.12998205146E+02
 0.13574663153E+02 0.13058810277E+02 0.11717667207E+02 0.99598993196E+01 0.81188611518E+01
 0.64294112623E+01 0.50195341215E+01 0.39237230030E+01 0.31228116915E+01 0.25811324662E+01
 0.22681427043E+01 0.21657270041E+01 0.22681427043E+01 0.25811324662E+01 0.31228116915E+01
 0.39237230030E+01 0.50195341215E+01 0.64294112623E+01 0.81188611518E+01 0.99598993196E+01
 0.11717667207E+02 0.13058810277E+02 0.13574663153E+02 0.12998205146E+02 0.11338909226E+02
 0.88940652348E+01 0.61597361592E+01 0.36948561515E+01 0.19926502885E+01 0.41987159975E+01
 0.47164232167E+01 0.61597361592E+01 0.82186475619E+01 0.10441187535E+02 0.12329091306E+02
 0.13460808928E+02 0.13611340078E+02 0.12819123208E+02 0.11358460517E+02 0.95899599096E+01
 0.77961745095E+01 0.61787396220E+01 0.48408066969E+01 0.38041406503E+01 0.30461693123E+01
 0.25324911067E+01 0.22350240338E+01 0.21375541054E+01 0.22350240338E+01 0.25324911067E+01
 0.30461693123E+01 0.38041406503E+01 0.48408066969E+01 0.61787396220E+01 0.77961745095E+01
 0.95899599096E+01 0.11358460517E+02 0.12819123208E+02 0.13611340078E+02 0.13460808928E+02
 0.12329091306E+02 0.10441187535E+02 0.82186475619E+01 0.61597361592E+01 0.47164232167E+01
 0.73771758218E+01 0.77810172299E+01 0.88940652348E+01 0.10441187535E+02 0.12030378099E+02
 0.13246678758E+02 0.13764180518E+02 0.13443432071E+02 0.12371996429E+02 0.10817692330E+02
 0.90693664445E+01 0.73585040547E+01 0.58460068228E+01 0.46066426849E+01 0.36488879288E+01
 0.29476673764E+01 0.24710353157E+01 0.21942390682E+01 0.21033936530E+01 0.21942390682E+01
 0.24710353157E+01 0.29476673764E+01 0.36488879288E+01 0.46066426849E+01 0.58460068228E+01
 0.73585040547E+01 0.90693664445E+01 0.10817692330E+02 0.12371996429E+02 0.13443432071E+02
 0.13764180518E+02 0.13246678758E+02 0.12030378099E+02 0.10441187535E+02 0.88940652348E+01
 0.77810172299E+01 0.10314444744E+02 0.10591278126E+02 0.11338909226E+02 0.12329091306E+02
 0.13246678758E+02 0.13776548204E+02 0.13698300235E+02 0.12956973063E+02 0.11677730659E+02
 0.10090974089E+02 0.84128688368E+01 0.68266902288E+01 0.54505772959E+01 0.43321056073E+01
 0.34687400276E+01 0.28349345774E+01 0.24025028111E+01 0.21506021736E+01 0.20677939330E+01
 0.21506021736E+01 0.24025028111E+01 0.28349345774E+01 0.34687400276E+01 0.43321056073E+01
 0.54505772959E+01 0.68266902288E+01 0.84128688368E+01 0.10090974089E+02 0.11677730659E+02
 0.12956973063E+02 0.13698300235E+02 0.13776548204E+02 0.13246678758E+02 0.12329091306E+02
 0.11338909226E+02 0.10591278126E+02 0.12451960292E+02 0.12604465914E+02 0.12998205146E+02
 0.13460808928E+02 0.13764180518E+02 0.13698300235E+02 0.13143572101E+02 0.12114333661E+02
 0.10745124091E+02 0.92022642627E+01 0.76524642584E+01 0.62307921852E+01 0.50162617545E+01
 0.40343205322E+01 0.32755213259E+01 0.27162668147E+01 0.23331359602E+01 0.21093360788E+01
 0.20356738770E+01 0.21093360788E+01 0.23331359602E+01 0.27162668147E+01 0.32755213259E+01
 0.40343205322E+01 0.50162617545E+01 0.62307921852E+01 0.76524642584E+01 0.92022642627E+01
 0.10745124091E+02 0.12114333661E+02 0.13143572101E+02 0.13698300235E+02 0.13764180518E+02
 0.13460808928E+02 0.12998205146E+02 0.12604465914E+02 0.13427938899E+02 0.13475463397E+02
 0.13574663153E+02 0.13611340078E+02 0.13443432071E+02 0.12956973063E+02 0.12114333661E+02
 0.10969310543E+02 0.96233619133E+01 0.82034663991E+01 0.68338631472E+01 0.56061810777E+01
 0.45682246011E+01 0.37303957823E+01 0.30808068137E+01 0.25997805340E+01 0.22690337227E+01
 0.20754823339E+01 0.20117431659E+01 0.20754823339E+01 0.22690337227E+01 0.25997805340E+01
 0.30808068137E+01 0.37303957823E+01 0.45682246011E+01 0.56061810777E+01 0.68338631472E+01
 0.82034663991E+01 0.96233619133E+01 0.10969310543E+02 0.12114333661E+02 0.12956973063E+02
 0.13443432071E+02 0.13611340078E+02 0.13574663153E+02 0.13475463397E+02 0.13185970839E+02
 0.13160345302E+02 0.13058810277E+02 0.12819123208E+02 0.12371996429E+02 0.11677730659E+02
 0.10745124091E+02 0.96233619133E+01 0.83968976442E+01 0.71631837677E+01 0.60076558801E+01
 0.49876725780E+01 0.41295129723E+01 0.34354984729E+01 0.28948202957E+01 0.24926617773E+01
 0.22155051656E+01 0.20532725727E+01 0.19998724772E+01 0.20532725727E+01 0.22155051656E+01
 0.24926617773E+01 0.28948202957E+01 0.34354984729E+01 0.41295129723E+01 0.49876725780E+01
 0.60076558801E+01 0.71631837677E+01 0.83968976442E+01 0.96233619133E+01 0.10745124091E+02
 0.11677730659E+02 0.12371996429E+02 0.12819123208E+02 0.13058810277E+02 0.13160345302E+02
 0.11980008683E+02 0.11916989677E+02 0.11717667207E+02 0.11358460517E+02 0.10817692330E+02
 0.10090974089E+02 0.92022642627E+01 0.82034663991E+01 0.71631837677E+01 0.61502301549E+01