    2    2  100    1
  0.3200000E+02  0.4000000E-09  0.4000000E-09  0.4000000E-09  0.3000000E-15
  1.000000000000000E-004
  CAR 
 Spinel                                  
      6      1      7
 
  0.0000000E+00  0.0000000E+00  0.0000000E+00  0.1000000E+01
    1       -4.483741
    2        3.006481
    3        4.046773
    4        4.046773
    5        4.046773
    6        6.502216
    7        6.502216
