       N       E                     dE             d eps       ncg     rms          rms(c)
DAV:   1     0.644874941719E+01    0.64487E+01   -0.10881E+03    14   0.282E+02
DAV:   2     0.525005883115E+00   -0.59237E+01   -0.58556E+01    28   0.304E+01
DAV:   3     0.487304307959E+00   -0.37702E-01   -0.37355E-01    14   0.401E+00
DAV:   4     0.487094334309E+00   -0.20997E-03   -0.20995E-03    14   0.365E-01
DAV:   5     0.487092025836E+00   -0.23085E-05   -0.23086E-05    14   0.335E-02    0.996E-01
RMM:   6     0.501492444442E+00    0.14400E-01   -0.87541E-03    14   0.726E-01    0.648E-01
RMM:   7     0.502495194101E+00    0.10027E-02   -0.26720E-02    14   0.131E+00    0.116E-01
RMM:   8     0.502266915707E+00   -0.22828E-03   -0.64796E-04    12   0.204E-01    0.144E-02
RMM:   9     0.502272655168E+00    0.57395E-05   -0.15577E-05     7   0.428E-02
   1 F= 0.50227266E+00 E0= 0.54083824E+00  d E =0.502273E+00
